7.484929715386341442e-01 6.826459899676352583e-01 1.574693396083490238e-01 1.540678968808510685e-01 -5.339306092761414435e-01 -8.638677449674447839e-01 -9.025608684194850184e-01 -1.487153806914938148e-01 7.063984053590957046e-01
2.160174759711334658e-01 2.431014755480611633e-01 1.085431452828020810e-01 5.806194104957030505e-02 -3.585277239598945176e-01 -5.273998557472653337e-01 -2.740794170207037084e-01 1.154262484118333820e-01 4.188567104644632111e-01
-4.153542918449208421e-01 -2.618260554993074307e-01 4.894734852655626550e-02 -1.563093265528381626e-01 6.288710758569530934e-02 2.263534281086853617e-01 5.716636183977589214e-01 1.989389479136121075e-01 -2.753007766362416397e-01
-6.680960280922274563e-01 -4.644997718115643215e-01 1.201755551029249497e-02 -2.889291549812435522e-01 3.608213736599046872e-01 7.231333564224657895e-01 9.570251830734709531e-01 1.036783981516596620e-01 -7.351509119327583885e-01
-4.217898206317549636e-01 -2.972774444369201130e-01 -4.765317544098631418e-03 -2.294388748150442137e-01 3.591779340001808318e-01 6.557450725127882407e-01 6.512286954467992883e-01 -6.190048956326078822e-02 -6.509797549696895169e-01
1.584740431057914956e-01 1.125907571165846444e-01 5.551920046445048447e-03 2.635706221160756947e-04 4.379704245828808934e-02 5.435120253593610229e-02 -1.587376137279075394e-01 -1.563877995738727211e-01 -5.990312258338115203e-02
6.173497528298789172e-01 4.278814287174377839e-01 2.071762384812397828e-02 2.546663787381543420e-01 -3.819567976192125847e-01 -6.803927081516428776e-01 -8.720161315680332592e-01 -4.592463109822507439e-02 6.596750843035189549e-01
5.465157480746839491e-01 3.398075763346502520e-01 -1.818514784100868850e-02 3.218285498467323147e-01 -4.563744286659859317e-01 -8.104860362129356899e-01 -8.683442979214163193e-01 1.165668523313356797e-01 8.286711840539442431e-01
5.804426647756252139e-02 -4.526907846593636320e-02 -9.745348693891822678e-02 1.439827295884095748e-01 -3.717211574237049010e-02 -1.542872021309476260e-01 -2.020269960659720754e-01 8.244119420830686717e-02 2.517406890698658528e-01
-4.267334761839321478e-01 -3.936449173493600240e-01 -1.515352911057356589e-01 -9.377057179129628939e-02 4.386092608661621983e-01 5.911547096103428878e-01 5.205040479752284233e-01 -4.496434351680216046e-02 -4.396194185046070624e-01
-5.926862141120172733e-01 -4.933618050102751007e-01 -1.555623827845092344e-01 -1.995828180278956809e-01 6.089641541071860731e-01 8.589595508412832814e-01 7.922690321399129543e-01 -1.156023490969109307e-01 -7.033971680567739915e-01
8.681195915293172805e-01 7.390219109734630365e-01 1.085312511417968473e-01 -3.711005091054315197e-01 1.118179502136442904e+00 3.052434245084282960e+00 -4.970190824238857608e-01 -1.857201413109905941e+00 -3.160965496227079896e+00
5.903441602199858279e-02 5.271423325921518327e-02 1.776931186282555350e-02 -2.760410059025676377e-01 7.623522863267376826e-01 2.075406430237002553e+00 2.170065898815690397e-01 -8.150665195859528867e-01 -2.093175742099828263e+00
-9.048841671265083209e-01 -7.856308320509894916e-01 -1.879428774927694723e-01 1.890710515522663060e-01 -4.210101642684116463e-01 -1.168838997896753051e+00 7.158131155742419871e-01 1.206640996319401138e+00 1.356781875389522662e+00
-9.870574602366971595e-01 -8.733681844056286891e-01 -2.673865182427561660e-01 7.024517086353576634e-01 -1.646324091528035938e+00 -4.405451171573147917e+00 2.846057516013394961e-01 2.519692275933665293e+00 4.672837689815903417e+00
3.046658501371738992e-01 2.406461083629798381e-01 3.849630318095365739e-02 2.163630057912856175e-01 -5.497920429971268064e-01 -1.401353816871152125e+00 -5.210288559284595999e-01 3.091459346341469683e-01 1.362857513690198363e+00
1.794466971597277860e+00 1.443414140369675192e+00 3.009864344975535233e-01 -2.969239895667644680e-01 7.073120477404981621e-01 1.787444939730185478e+00 -1.497542982030513503e+00 -2.150726188110173354e+00 -2.088431374227738946e+00
9.493343893930841215e-01 7.897769709338154920e-01 2.324149189623548606e-01 -5.168418482356156307e-01 1.020438477937398059e+00 2.643318718128109701e+00 -4.324925411574684353e-01 -1.810215448871213662e+00 -2.875733637089464612e+00
-8.936723841275706626e-01 -6.031087393296071797e-01 3.088919514860350921e-02 -4.526399038133412933e-01 6.385673991882232503e-01 1.792169465990266053e+00 1.346312287940911956e+00 -3.545865985861588326e-02 -1.823058661137869629e+00
-1.790318503014451057e+00 -1.322309220245341033e+00 -1.942448505765448641e-01 6.289245504369765649e-02 -4.020219066900492799e-01 -8.138315500854089724e-01 1.727426047970753498e+00 1.724331126935390257e+00 1.008076400661954031e+00
-1.390866050318533276e+00 -1.060257094472934369e+00 -2.438109522543736030e-01 6.000530748942615178e-01 -1.425432720407756371e+00 -3.300778500408652949e+00 7.908129754242717580e-01 2.485689814880690296e+00 3.544589452663026830e+00
7.278073260445241388e-01 5.470856605619348612e-01 1.342955050401433426e-01 2.318892966451233661e-01 -5.950573762970614577e-01 -1.325314565944664569e+00 -9.596966226896475050e-01 4.797171573512660353e-02 1.191019060904521032e+00
6.799296511464388848e-01 6.393362889785617620e-01 1.312579477618056323e-01 5.630139471589497013e-01 -1.246348780717888571e+00 -1.212969788313188246e+00 -1.242943598305388697e+00 6.070124917393264763e-01 1.081711840551382808e+00
2.268818137759180675e-01 2.812378452778563354e-01 9.638411147644727894e-02 2.029895226663959995e-01 -5.993620006279573031e-01 -5.413028192993881715e-01 -4.298713364423140670e-01 3.181241553501009123e-01 4.449187078229408510e-01
-3.507809756794828537e-01 -1.574748947033514646e-01 5.170947912277270436e-02 -3.652013853588336190e-01 4.075233987084720400e-01 4.716526656547144203e-01 7.159823610383164727e-01 -2.500485040051206309e-01 -5.233621447784871927e-01
-6.613276614962466660e-01 -3.993162408768576865e-01 1.469902920247340844e-02 -6.282876970696961161e-01 8.956273034844316472e-01 9.389319323015028473e-01 1.289615358565942893e+00 -4.963110626075739051e-01 -9.536309615039763043e-01
-5.277352229624129309e-01 -3.461362632664373717e-01 -1.435536648032206125e-02 -4.533501039786540510e-01 6.940913420766756659e-01 7.012304943348198760e-01 9.810853269410670929e-01 -3.479550788102383496e-01 -6.868751278534976912e-01
-2.267103850698425765e-02 -3.410118264201806443e-02 -1.525822197871967538e-02 8.651658652510164915e-02 -1.438590357613550863e-01 -1.406009970319202496e-01 -6.384554801811738456e-02 1.779602184033731715e-01 1.558592190106399267e-01
5.574640401425055014e-01 3.576037232754875617e-01 2.210620651773550702e-02 6.051005393674844246e-01 -1.025989335788842549e+00 -9.763464876359800870e-01 -1.162564579509989926e+00 6.683856125133550430e-01 9.542402811182446598e-01
7.922901566899221981e-01 5.065484678590824741e-01 4.079247132096488343e-02 5.466629854457487614e-01 -8.249917030223239411e-01 -7.952668191462332059e-01 -1.338953142136670937e+00 3.184432351632414671e-01 7.544743478252682323e-01
3.797345506732340281e-01 1.700952522589094795e-01 -2.665847564974031456e-02 5.847318558975141828e-02 1.855059418596962661e-01 1.053534147413973249e-01 -4.382077362629854256e-01 -3.556011941196056680e-01 -7.869493909165700685e-02
-3.704333422931377351e-01 -3.867519810283244208e-01 -1.320055849341348619e-01 -3.394025945394718580e-01 9.039361189570908062e-01 7.444405291578494177e-01 7.098359368336095709e-01 -5.171841379287663854e-01 -6.124349442237145835e-01
-8.396017865197581420e-01 -7.182710976373244405e-01 -1.968774419107042206e-01 -4.113089868191392440e-01 9.668046397277779702e-01 8.027415358755249919e-01 1.250910773338897330e+00 -2.485335420894534131e-01 -6.058640939658206381e-01
1.015523613705233474e+00 3.297631447352267209e-01 -5.947084247719078842e-01 1.678373446019150728e-01 3.237881436893953691e+00 4.366127956975829782e+00 -1.183360958307148714e+00 -3.567644581629179967e+00 -3.771419532203922120e+00
-7.561054601029866540e-02 -5.524674214013050033e-01 -6.884558951981939456e-01 1.545910393440814157e-01 2.839382993925455789e+00 3.765948344046512464e+00 -7.898049333378277803e-02 -2.286915572524150786e+00 -3.077492448849318496e+00
-1.443657448545782263e+00 -1.674760906509559666e+00 -8.796768093844069547e-01 4.775125049902951280e-01 7.506794333225970117e-01 5.503663355613797048e-01 9.661449435564872790e-01 9.240814731869627652e-01 3.293104738240273943e-01
-1.759269103976776938e+00 -1.885059401085174668e+00 -8.725638553592746094e-01 1.801431493033345044e+00 -4.489409472758123520e+00 -7.664392325622375601e+00 -4.216238905656818914e-02 6.374468873843297523e+00 8.536956180981650988e+00
4.936695358694105917e-01 3.048916574832733484e-01 -4.692064229866371033e-02 7.602246758008006644e-01 -1.946133807135071558e+00 -3.229932710309452837e+00 -1.253894211669211334e+00 1.641242149651798377e+00 3.276853352608116499e+00
3.989323923820886630e+00 3.042559658924933963e+00 4.850924844376332534e-01 -7.943562282708320765e-01 1.153502185502998989e+00 2.171892041111494809e+00 -3.194967695550054554e+00 -4.196061844428933263e+00 -2.656984525549127785e+00
1.412818247192201060e+00 1.441484856506825452e+00 6.561181754629524798e-01 -1.606792277312626638e+00 1.596358928945031952e+00 3.387018196927633173e+00 1.939740301214255835e-01 -3.037843785451857404e+00 -4.043136372390585542e+00
-1.708293744312327611e+00 -3.301107631743798176e-01 9.827136789827842778e-01 -1.909413278327900088e+00 1.164725561099941631e+00 3.036869716516428230e+00 3.617707022640227255e+00 -8.346147979255620353e-01 -4.019583395499212841e+00
-2.686073235880938714e+00 -9.337262208662102658e-01 9.872567372787849349e-01 -1.323833384703012150e+00 -1.449720594998452905e-01 8.794173859542928628e-01 4.009906620583951309e+00 1.078698280366055640e+00 -1.866674123233077687e+00
-2.193301319093923230e+00 -7.876595523988828562e-01 7.427495659311047493e-01 9.310121692030149942e-01 -3.572251498793209024e+00 -5.146015335186290507e+00 1.262289149890908346e+00 4.359911051192091769e+00 4.403265769255185091e+00
4.340216109941418265e-01 8.057345326798431850e-01 6.474246685621237729e-01 1.002742054042604858e+00 -3.945370125217529278e+00 -5.569493070700787918e+00 -1.436763665036746351e+00 3.139635592537686204e+00 4.922068402138664034e+00
8.021171540742501049e-01 3.068355725131294842e-01 -4.475652572221063830e-01 3.814387450449844841e-01 1.218528304521636185e+00 1.443958444625914828e+00 -1.183555899119234311e+00 -1.525363877035765592e+00 -9.963931874038086667e-01
4.979856429393113987e-02 -2.891992859423624385e-01 -4.906268367780706185e-01 3.768303601119549762e-01 8.015601271660047766e-01 7.988735545248214498e-01 -4.266289244058861785e-01 -5.123608412236421161e-01 -3.082467177467509423e-01
-8.015954504730202768e-01 -9.055575144358047890e-01 -4.907543248901267696e-01 4.204376233331594270e-01 -9.052234984086576786e-02 -5.856049457438986527e-01 3.811578271398607942e-01 9.960798642756706345e-01 1.076359270634025478e+00
-8.847878332866579987e-01 -8.430565072672795424e-01 -3.217518423666985150e-01 3.756328810624275372e-01 -5.750213911702376501e-01 -1.231311309154265787e+00 5.091549522242303505e-01 1.418077898437517304e+00 1.553063151520964302e+00
-5.505209754524478111e-02 -4.406235888140493800e-02 -7.906405897481958572e-03 4.956274763882728696e-02 -1.655653679679144896e-01 -2.872761286165155803e-01 5.489349907417493714e-03 2.096277268483194289e-01 2.951825345149974855e-01
1.009641021901642954e+00 8.755667230395970391e-01 2.680964347560688688e-01 -3.451681128640110008e-01 3.053600867454797085e-01 7.693936447868386930e-01 -6.644729090376318981e-01 -1.180926809785076914e+00 -1.037490079542907617e+00
9.357434547180986106e-01 9.402627913320888986e-01 4.403965827029492908e-01 -5.847403743355178429e-01 2.629981539568236326e-01 9.197701580850641268e-01 -3.510030803835807456e-01 -1.203260945288912476e+00 -1.360166740788013584e+00
-1.333057110037074167e-01 3.048689286102633234e-01 5.462657601755738224e-01 -5.616335914703417531e-01 -2.829686868276186096e-01 1.235199903503978319e-01 6.949393024740492253e-01 -2.190024178164480181e-02 -6.697857505259715571e-01
-8.904423400151482149e-01 -1.719097594007085450e-01 5.590949907692237542e-01 -3.100305600605365863e-01 -9.965829966678921847e-01 -1.084954874799811009e+00 1.200472900074684768e+00 1.168492756068600480e+00 5.258598840315871215e-01
-7.668277230107086728e-01 -1.179830881389593994e-01 5.064255653600283624e-01 -1.919877420135508161e-01 -1.151407160372076355e+00 -1.385716611164265588e+00 9.588154650242595167e-01 1.269390248510035679e+00 8.792910458042372257e-01
2.219876718467627130e-01 4.572385540933665005e-01 4.269270686500174494e-01 -3.347964068584433628e-01 -4.621812108735432467e-01 -3.315358536380074161e-01 1.128087350116806359e-01 4.942656780176731511e-03 -9.539121501201000553e-02
7.565010110761608564e-01 1.735016970952096393e+00 2.448118286371144148e+00 1.765062150352228088e+01 -1.089725132860411527e+01 -5.278382463666483915e+01 -1.840712251459844140e+01 9.162234357652019767e+00 5.033570635029469997e+01
-6.448757414160013468e-01 4.648344949637117640e-01 2.036091625049688769e+00 -2.848434150332441739e+00 -4.454320535621669741e-01 3.698036174908604146e+00 3.493309891748443530e+00 -1.940244140154477603e-02 -5.734127799959292560e+00
-2.107582259422172921e+00 -7.282198598537057421e-01 1.851268451239293178e+00 -2.148512955887198483e+00 2.835184598348606810e-01 4.052894999642882468e+00 4.256095215309371405e+00 4.447014000188451721e-01 -5.904163450882175646e+00
-2.117478715336531536e+00 -8.003522999334727883e-01 1.685555843438313772e+00 -1.397831081440600753e+00 3.699578428539283537e-01 3.011573003108288127e+00 3.515309796777131623e+00 4.303944570795444347e-01 -4.697128846546601899e+00
-3.386297555811315640e-01 1.184806736551785311e-01 7.841793694443502938e-01 -8.877327357849549294e-01 3.510676393276091489e-01 2.140976623839879522e+00 1.226362491367086527e+00 -4.695483129817876744e-01 -2.925155993284230149e+00
4.688468794414787588e+00 2.612074545838349859e+00 -1.663994792516818366e+00 -4.604319057797727766e-01 2.886053001021008924e-01 1.322960743064627964e+00 -4.228036888635014812e+00 -2.900679845940450807e+00 3.410340494521903465e-01
1.200349268528630399e-03 -7.283371803207575827e-05 3.537517345557912151e-03 -7.269713893201560587e-04 -2.922270363286959358e-03 1.801733051793477950e-03 -4.733778802084742275e-04 2.995104081319034574e-03 -5.339250397351389885e-03
-1.809932343907088848e-01 -1.427865501738827814e-01 -7.492073198299486342e-03 -3.215591078416136714e-03 -3.579257923976294359e-02 -3.923277606227799919e-02 1.842088254691250371e-01 1.785791294136457319e-01 4.672484926157748075e-02
-1.904987167608950538e-01 -1.416248344573711737e-01 -4.904664922160000039e-04 -1.727299292560697391e-02 -2.837656117949695356e-02 -1.607466500507923751e-02 2.077717096875020542e-01 1.700013956358681078e-01 1.656513149729523307e-02
-1.996214213979126753e-02 1.896898097835388172e-03 2.502645489102157603e-02 -3.561185164668335262e-02 7.314246397221172563e-03 4.610588447430489373e-02 5.557399378547462493e-02 -9.211144495056560952e-03 -7.113233936532646629e-02
1.709959089933061060e-01 1.544700294730281254e-01 4.973021681290104579e-02 -3.772758736061512103e-02 1.971213249868116260e-02 6.218532407438623344e-02 -1.332683216326910058e-01 -1.741821619717092984e-01 -1.119155408872872653e-01
1.890568229402600775e-01 1.644465057684217357e-01 4.912257392963342850e-02 -1.515764665967538234e-02 -2.163023115252588752e-02 -1.032769564454828759e-02 -1.738991762805846830e-01 -1.428162746158958551e-01 -3.879487828508514785e-02
2.263978511297049315e-02 2.927992502689479373e-02 2.073284744913068620e-02 1.364675087900998895e-02 -7.917905347887022049e-02 -1.053781409334082209e-01 -3.628653599198048557e-02 4.989912845197543023e-02 8.464529348427753119e-02
-1.491552557126875345e-01 -1.069381749260952530e-01 -1.033788944355277725e-02 1.679109361339474818e-02 -7.732205023905240615e-02 -1.047809695191452284e-01 1.323641620992927759e-01 1.842602251641476674e-01 1.151188589626979952e-01
-1.685266887022186522e-01 -1.243837655867782443e-01 -2.002460297181877721e-02 -1.244504707448076085e-02 4.376719081927494572e-03 1.601076818905109583e-02 1.809717357756994160e-01 1.200070465048507506e-01 4.013834783767680943e-03
-3.321262286762674543e-02 -2.744870958708833103e-02 -7.694647624388700237e-03 -4.050635590983887868e-02 9.568124128613773871e-02 1.430864822480148457e-01 7.371897877646563235e-02 -6.823253169904938686e-02 -1.353918346236261672e-01
1.180840572320038528e-01 7.672048911078749311e-02 6.394628529816175598e-03 -2.997000920619870279e-02 1.066034031779478225e-01 1.448996642928133960e-01 -8.811404802580516393e-02 -1.833238922887353017e-01 -1.512942928226295725e-01
7.785554649418735540e-01 8.285127537648745433e-01 6.687705043535245863e-01 -5.232279361484279967e-01 -4.056946602126667023e-01 -1.584532716697823265e-02 -2.553275287934455018e-01 -4.228180935522078410e-01 -6.529251771865463017e-01
5.453623478891760357e-01 6.218297738378519846e-01 5.982638053884735685e-01 -8.635826466643192756e-01 1.030755345009941593e+00 4.811120895868803871e+00 3.182202987751432954e-01 -1.652585118847793577e+00 -5.409384701257276440e+00
-3.608905294369351147e-01 -7.257448676496158768e-02 5.605368644998587335e-01 -8.054792651637306955e-01 1.326953156946386381e+00 5.428101698972520595e+00 1.166369794600665699e+00 -1.254378670181424793e+00 -5.988638563472377996e+00
-8.994115782750981003e-01 -5.384527233851329475e-01 3.579734112956504122e-01 -6.111932545231676395e-01 1.499412709664336818e+00 5.409616068781378573e+00 1.510604832798265740e+00 -9.609599862782038926e-01 -5.767589480077029762e+00
-1.029663997879461057e+00 -7.959018895615128653e-01 -1.194433094286024843e-01 -1.868408559562841909e-01 1.473612156484974456e+00 4.380071382774969990e+00 1.216504853835745248e+00 -6.777102669234615906e-01 -4.260628073346367728e+00
-1.177119909285400112e+00 -1.159743775112747732e+00 -8.436970583645616584e-01 5.222145016929816697e-01 -6.850823432987083184e-01 -2.816831068013523787e+00 6.549054075924184426e-01 1.844826118411456051e+00 3.660528126378085556e+00
7.159097763436845341e+00 5.166835763113458491e+00 7.959946711205536651e-01 1.088952351999571411e+00 1.676061202054132115e+00 2.309054928606900869e+00 -8.248050115436416974e+00 -6.842896965167590828e+00 -3.105049599727454535e+00
2.620346420835992340e+00 1.530762150029143287e+00 -4.840230831241623122e-01 9.023397790343877789e-01 2.656247948174804030e+00 4.942229594435542772e+00 -3.522686199870380896e+00 -4.187010098203947095e+00 -4.458206511312381437e+00
-2.821844031278731624e+00 -2.196334044402258545e+00 -8.544262845942868223e-01 3.499442574651144278e-01 2.421151318384267892e+00 5.202243727408053076e+00 2.471899773814617784e+00 -2.248172739830088529e-01 -4.347817442814765343e+00
6.659034791892618488e-01 8.979655105334612974e-01 5.206996280833146029e-01 -4.985948949365797134e-01 -2.828345393485594550e-01 9.232848061166119835e-02 -1.673085842526822187e-01 -6.151309711859018758e-01 -6.130281086949757041e-01
5.551559558574890030e-01 7.764981630609674168e-01 4.797808483362940302e-01 -1.613850475422734965e+00 2.249246095968561399e+00 4.199132484759284800e+00 1.058694519565245962e+00 -3.025744259029528926e+00 -4.678913333095579219e+00
-4.004302390163482772e-01 9.513802505389849784e-02 4.619191666084278558e-01 -1.677214461563640180e+00 2.658332113295721832e+00 4.701585765844564335e+00 2.077644700579988513e+00 -2.753470138350619933e+00 -5.163504932452991802e+00
-9.965324123398697775e-01 -4.357896464809204451e-01 3.099952508975210019e-01 -1.502734928948800119e+00 2.792782824620933191e+00 4.670073375689685946e+00 2.499267341288670341e+00 -2.356993178140012635e+00 -4.980068626587207170e+00
-1.091892427284866240e+00 -8.104205722899068265e-01 -8.156388838592049106e-02 -9.312316921071117637e-01 2.482099798096109478e+00 3.767035246036991136e+00 2.023124119391977782e+00 -1.671679225806202762e+00 -3.685471357650070612e+00
-1.092875747352299198e+00 -1.294930981658283908e+00 -6.834474071529882400e-01 9.669840698868569229e-01 -1.451581094663271898e+00 -2.503586055742571759e+00 1.258916774654423310e-01 2.746512076321555806e+00 3.187033462895560554e+00
7.278607800816478068e+00 5.201922077810911205e+00 8.154968901271424375e-01 6.527790754884819080e-01 2.186859240761086287e+00 2.054189662624659185e+00 -7.931386876304959976e+00 -7.388781318571997936e+00 -2.869686552751801401e+00
2.565996105471056943e+00 1.250879156313883245e+00 -3.298382315572597756e-01 6.740996266968714463e-03 3.762952478064192974e+00 4.267214013758268365e+00 -2.572737101739025700e+00 -5.013831634377076796e+00 -3.937375782201008700e+00
-2.808819904484995966e+00 -2.265640365011781121e+00 -6.943969244458103596e-01 -5.794050274931682454e-01 3.613086143253192439e+00 4.463673885872788460e+00 3.388224931978164101e+00 -1.347445778242411407e+00 -3.769276961426978545e+00
-1.872879450654810762e-01 -4.362976871121442002e-02 3.559546052887613832e-01 3.427753779489572383e-01 -2.775522054525331406e+00 -1.023045825551946386e+01 -1.554874328834761898e-01 2.819151823236545784e+00 9.874503650230700202e+00
2.265319331557640037e-01 3.196541370627747902e-01 4.669054522576237543e-01 -2.358589040538715820e-01 -7.664719618075518381e-01 -1.890860916834729677e+00 9.326970898107569616e-03 4.468178247447772145e-01 1.423955464577105756e+00
5.581163544977927327e-01 5.762610677847836982e-01 4.573723451224254166e-01 -5.539191268389443978e-01 5.909419506582490600e-01 3.222049162403981093e+00 -4.197227658848446709e-03 -1.167203018443032869e+00 -3.679421507526405843e+00
1.260884311125289592e-01 2.127414547306906989e-01 3.566615137350727105e-01 -5.449755548650055959e-01 1.000022914216406988e+00 4.394288223254231518e+00 4.188871237524766644e-01 -1.212764368947097715e+00 -4.750949736989303673e+00
-5.910207634152837564e-01 -3.942297344206175391e-01 1.426175195568083476e-01 -3.662052358692757248e-01 1.022019513009094327e+00 3.953983123475322436e+00 9.572259992845594256e-01 -6.277897785884768433e-01 -4.096600643032131117e+00
-1.110291042049968757e+00 -9.092587560444349570e-01 -2.674352195727776604e-01 4.327861907005977476e-02 3.710581561294128972e-01 1.011562259094489047e+00 1.067012422979909170e+00 5.382005999150220044e-01 -7.441270395207113530e-01
-1.072731384115427566e+00 -1.023364927078686870e+00 -7.193347410307929790e-01 5.073614111804405358e-01 -1.917603951468507040e+00 -6.649110591008248861e+00 5.653699729349872527e-01 2.940968878547194354e+00 7.368445332039041951e+00
8.687174614015805707e-01 4.727109441381805444e-01 -4.142959344004546463e-01 4.591635166782142563e-01 -1.313671805276537263e+00 -4.614900390768388760e+00 -1.327880978079794883e+00 8.409608611373566855e-01 5.029196325168842741e+00
3.582999801694942477e+00 2.515461862171801677e+00 9.380442117231119203e-02 5.667356493225886860e-01 1.043644861744618124e+00 1.772810143896740298e+00 -4.149735451016531407e+00 -3.559106723917420556e+00 -1.866614565069051546e+00
9.405253661272046095e-01 5.080419147197401397e-01 -3.488909316036505337e-01 3.784127277986518156e-01 1.594796565298343793e+00 3.551370079597012452e+00 -1.318938093925856370e+00 -2.102838480018084155e+00 -3.202479147992362662e+00
-2.051070674380285563e+00 -1.597991264906750697e+00 -6.048722521653838724e-01 1.022095235370127780e-01 1.365755706270474823e+00 3.376605010162046394e+00 1.948861150843272494e+00 2.322355586372758518e-01 -2.771732757996663299e+00
6.234445800145631267e-02 1.333953658137469189e-01 8.498811619442851739e-02 -1.141772006109833093e+00 1.732298240578899140e+00 2.516809957239395601e+00 1.079427548108376600e+00 -1.865693606392646142e+00 -2.601798073433824410e+00
-2.772381303620948256e-01 -1.740363597566450815e-01 2.467168869386534083e-02 -8.523430700353693545e-01 1.250138577130557316e+00 1.808471980975445703e+00 1.129581200397464347e+00 -1.076102217373912318e+00 -1.833143669669311082e+00
-5.676183350719773424e-01 -5.046355888642399812e-01 -1.002337185901426286e-01 2.931887464151194944e-01 -5.145072866405875356e-01 -6.917044545646245934e-01 2.744295886558579811e-01 1.019142875504827517e+00 7.919381731547671111e-01
-3.267482940878989606e-01 -3.541522438579676191e-01 -1.257168009683652943e-01 1.649644846802498677e+00 -2.689254868477339855e+00 -3.630792568497990480e+00 -1.322896552715599805e+00 3.043407112335307474e+00 3.756509369466355164e+00
8.169270109097722665e-01 7.076455566596450142e-01 1.555777914815160146e-01 7.118791782075095664e-01 -1.173944252122001597e+00 -1.547525183653525538e+00 -1.528806189117281722e+00 4.662986954623565827e-01 1.391947392172009357e+00
1.476335076938173785e+00 1.280606368885975233e+00 3.093018552032155699e-01 -5.535211674097690882e-01 9.411054610144600208e-01 1.210567754927130535e+00 -9.228139095284045856e-01 -2.221711829900435475e+00 -1.519869610130345938e+00
2.266858635288317714e-01 2.610704865899746707e-01 1.128424664676954819e-01 -1.050343809426568464e+00 1.606778128426620267e+00 2.093566617391000584e+00 8.236579458977366652e-01 -1.867848615016594938e+00 -2.206409083859695919e+00
-1.198547115991836609e+00 -8.951517306252222417e-01 -1.457001045331658973e-01 -9.044858995603328733e-01 1.254654426203545947e+00 1.657246549633846433e+00 2.103033015552169260e+00 -3.595026955793239054e-01 -1.511546445101680680e+00
-1.657012333922743386e+00 -1.365022484825151983e+00 -3.420036641636173824e-01 7.052514431105906360e-03 -8.676940701621298213e-02 -8.116655339174549955e-02 1.649959819491637392e+00 1.451791891841365034e+00 4.231702175563629154e-01
-9.736703561928015116e-01 -9.052005010806475349e-01 -3.094147446832653525e-01 1.183170226056064589e+00 -1.861434351144770183e+00 -2.285934028627718551e+00 -2.094998698622631272e-01 2.766634852226417696e+00 2.595348773310984125e+00
1.193167875437467718e+00 9.113422204473523580e-01 2.186994697933145881e-01 8.177426914831315008e-01 -1.264470787025869125e+00 -1.527217396097581892e+00 -2.010910566920599329e+00 3.531285665785168226e-01 1.308517926304267442e+00
-4.234994762665079265e-02 -3.113754683331287909e-01 -3.543620897610600395e-01 1.373008233280668788e+00 -6.611455627966665638e+00 -9.666670869262175003e+00 -1.330658285654017892e+00 6.922831096299794318e+00 1.002103295902223401e+01
7.290727425310813414e-01 3.849883657045476970e-01 -1.853017135346063382e-01 3.608384269619122064e-01 -6.848787863696186307e-01 -1.179957287091649709e+00 -1.089911169492993492e+00 2.998904206650708781e-01 1.365259000625256069e+00
7.414546263415344729e-01 4.760440667386483526e-01 -7.205005544273063167e-02 -3.849147559335153734e-01 2.254926532921063043e+00 3.116184928321358516e+00 -3.565398704080190440e-01 -2.730970599660711429e+00 -3.044134872878628162e+00
-5.463739209446214495e-01 -3.030343975154554670e-01 1.062246858707810299e-01 -7.228304857933323113e-01 2.748184307328291887e+00 3.976109461027066416e+00 1.269204406737953761e+00 -2.445149909812836864e+00 -4.082334146897847127e+00
-1.510346482851151917e+00 -9.108663380071428950e-01 1.870814794633901268e-01 -7.710832009855828062e-01 2.464046261754158973e+00 3.634483981974616196e+00 2.281429683836734501e+00 -1.553179923747015634e+00 -3.821565461438005684e+00
-1.613179486153439202e+00 -1.076385723730037158e+00 5.395593399676203161e-02 -3.118763544723494041e-01 9.224622794872495701e-01 1.362792421297169598e+00 1.925055840625788939e+00 1.539234442427874217e-01 -1.416748355293931727e+00
-7.794067271042484091e-01 -6.403132258859919324e-01 -1.257391005143751184e-01 1.024981156597398746e+00 -4.075570249781868881e+00 -5.645426098606228571e+00 -2.455744294931502258e-01 4.715883475667861369e+00 5.771165199120604328e+00
2.108916455410760449e+00 1.458424479855285671e+00 5.431683635392096920e-02 8.713964659187605211e-01 -4.156453972583489254e+00 -5.513100243392952571e+00 -2.980312921328520659e+00 2.698029492728204026e+00 5.458783407039031310e+00
4.557225767587988585e+00 3.043552025361371260e+00 5.641733029684602163e-02 -1.242687740997275997e-01 8.369543849815921366e-01 1.054010482209183142e+00 -4.432956993488260444e+00 -3.880506410342963619e+00 -1.110427812506028955e+00
2.657977042760565345e-01 2.751494132221750100e-01 1.145384200644423700e-01 -6.832663899249085127e-01 2.238294991806738299e+00 3.039535823828602545e+00 4.174686856478519448e-01 -2.513444405028913309e+00 -3.154074243892044827e+00
-2.637859515343705219e+00 -1.450811515615933134e+00 2.605941823587649142e-01 -9.125152255108689436e-01 2.256719119548852071e+00 3.197051803564971983e+00 3.550374740854574274e+00 -8.059076039329193808e-01 -3.457645985923737175e+00
