-4.664047276659999852e+02
-4.664189327689999800e+02
-4.664189280049999979e+02
-4.664057865789999937e+02
-4.664134619179999959e+02
-4.664237444469999900e+02
-4.664102843079999730e+02
-4.664077630740000018e+02
-4.664220093220000081e+02
-4.664141723230000025e+02
-4.664043249129999822e+02
-4.662502126559999738e+02
-4.663589028750000125e+02
-4.663937047449999795e+02
-4.662442456229999834e+02
-4.664016852380000273e+02
-4.663331889429999819e+02
-4.662877964310000038e+02
-4.663545303060000151e+02
-4.663489813670000217e+02
-4.662875596619999783e+02
-4.663964124130000073e+02
-4.663867194630000199e+02
-4.664161216009999862e+02
-4.664140720350000038e+02
-4.663880741219999777e+02
-4.664042803620000086e+02
-4.664236399960000199e+02
-4.663956985489999738e+02
-4.663962558029999741e+02
-4.664200090190000196e+02
-4.664037164669999811e+02
-4.663890897370000062e+02
-4.657027095679999888e+02
-4.659682845300000054e+02
-4.663075757280000175e+02
-4.658410962039999959e+02
-4.663038364779999938e+02
-4.661438570799999752e+02
-4.659785180019999871e+02
-4.659427439159999835e+02
-4.660890093149999984e+02
-4.659929788869999925e+02
-4.660892973709999865e+02
-4.663413492290000022e+02
-4.663798452710000220e+02
-4.663846851900000274e+02
-4.663838179210000021e+02
-4.664232143309999969e+02
-4.663938273809999941e+02
-4.663727992319999771e+02
-4.663819022640000185e+02
-4.663528010939999717e+02
-4.663557148740000002e+02
-4.663990750350000098e+02
-4.599472401699999864e+02
-4.652181596259999878e+02
-4.628137679569999818e+02
-4.614738550420000252e+02
-4.609035549750000200e+02
-4.600522430820000181e+02
-4.664242210959999966e+02
-4.664236528459999818e+02
-4.664236125489999836e+02
-4.664242220900000007e+02
-4.664237706399999865e+02
-4.664237829890000171e+02
-4.664242586039999878e+02
-4.664239587719999918e+02
-4.664240224600000033e+02
-4.664241354010000009e+02
-4.664239316740000163e+02
-4.663725376670000173e+02
-4.657156349919999911e+02
-4.651840508399999976e+02
-4.652859682199999725e+02
-4.659636542019999865e+02
-4.662823071710000136e+02
-4.657273128200000087e+02
-4.655230268799999749e+02
-4.651668853790000071e+02
-4.663818837850000136e+02
-4.657107813860000078e+02
-4.651800266719999968e+02
-4.652817207240000243e+02
-4.659634766070000182e+02
-4.662857387209999729e+02
-4.657379026739999972e+02
-4.655228491049999775e+02
-4.651213736189999963e+02
-4.658238365440000166e+02
-4.663733161569999766e+02
-4.662098631459999751e+02
-4.659650671429999989e+02
-4.660964121339999906e+02
-4.663857465959999899e+02
-4.660682460109999852e+02
-4.661862754190000260e+02
-4.661904182939999828e+02
-4.661577763409999875e+02
-4.661092539219999935e+02
-4.662560497260000147e+02
-4.663450434819999941e+02
-4.664101580010000134e+02
-4.662571952399999873e+02
-4.663745655100000249e+02
-4.663596406990000105e+02
-4.663042725920000180e+02
-4.663217465739999739e+02
-4.663615359560000115e+02
-4.663243264679999811e+02
-4.663590647679999961e+02
-4.656917314699999793e+02
-4.663881929309999919e+02
-4.661688949680000178e+02
-4.658778431260000161e+02
-4.659697582289999787e+02
-4.663367911199999867e+02
-4.661024097150000216e+02
-4.660533107190000237e+02
-4.662007418659999871e+02
-4.661633402279999814e+02
-4.659584248709999770e+02
