3.045738783999999994e-03 -3.652421229999999936e-04 4.214866500000000009e-04 1.741854782000000056e-03 -1.379979798999999988e-03 1.946237385999999943e-03 -4.787593566000000050e-03 1.745221920999999931e-03 -2.367724035000000164e-03
7.698788193000000342e-03 4.100804573999999869e-03 1.704800106000000032e-03 2.765224326000000152e-03 -5.685431058000000107e-03 -4.765599593000000370e-03 -1.046401251999999962e-02 1.584626484000000021e-03 3.060799487000000121e-03
6.737135517000000101e-03 4.010472327000000163e-03 2.464575234000000031e-03 2.291253369999999862e-03 -7.111678330000000166e-03 -6.217925905999999864e-03 -9.028388886999999530e-03 3.101206003000000003e-03 3.753350671999999832e-03
1.510289208999999978e-03 5.064875120000000321e-04 2.758685797000000155e-03 1.433070630000000077e-04 -5.067598347999999892e-03 -1.637354557000000096e-03 -1.653596272000000013e-03 4.561110836000000293e-03 -1.121331240000000059e-03
-3.747603764999999938e-03 -3.168524029000000138e-03 2.793672480999999895e-03 -2.357435216000000177e-03 -1.594134309999999935e-03 5.014713833000000211e-03 6.105038981000000115e-03 4.762658339000000289e-03 -7.808386314000000106e-03
-5.017907603000000029e-03 -4.059500673000000087e-03 2.797467255999999940e-03 -3.463036526000000132e-03 3.499218490000000222e-04 8.440403064000000580e-03 8.480944128000000165e-03 3.709578824000000011e-03 -1.123787031999999922e-02
-1.275131705000000096e-03 -1.452122192000000018e-03 2.924198372000000063e-03 -2.233188105000000114e-03 -1.281448814999999915e-03 5.420215915999999738e-03 3.508319809999999993e-03 2.733571007000000150e-03 -8.344414288000000235e-03
4.339658363000000428e-03 2.251409357000000097e-03 2.936415695000000204e-03 5.479734609999999942e-04 -5.325776824000000124e-03 -1.772171142999999982e-03 -4.887631824999999659e-03 3.074367467000000027e-03 -1.164244552000000005e-03
7.256213208000000109e-03 3.672339722999999872e-03 2.378544826999999962e-03 2.795168298999999891e-03 -7.706773798000000376e-03 -6.426488323999999738e-03 -1.005138150799999956e-02 4.034434073999999641e-03 4.047943497999999772e-03
5.477560511000000368e-03 1.554904381999999956e-03 1.177358163000000093e-03 3.037404815999999834e-03 -5.770136537000000385e-03 -4.318925775000000307e-03 -8.514965326999999334e-03 4.215232154999999994e-03 3.141567612000000214e-03
5.596146240000000535e-04 -2.724246887999999967e-03 -3.041609369999999845e-04 1.622191718999999987e-03 -7.163697550000000308e-04 2.676802805000000080e-03 -2.181806343000000040e-03 3.440616643000000106e-03 -2.372641867999999987e-03
3.045738783999999994e-03 -3.652421229999999936e-04 4.214866500000000009e-04 1.741854782000000056e-03 -1.379979798999999988e-03 1.946237385999999943e-03 -4.787593566000000050e-03 1.745221920999999931e-03 -2.367724035000000164e-03
7.518571005000000348e-03 3.454299084000000183e-03 1.030793434999999897e-03 -1.380124303000000024e-03 7.692194951000000391e-03 2.668427530800000086e-02 -6.138446702000000324e-03 -1.114649403599999970e-02 -2.771506874300000076e-02
3.437971676000000070e-03 -8.148132800000000531e-05 2.098318670000000091e-04 -1.799689996000000073e-03 9.338918180999999583e-03 3.105779253299999904e-02 -1.638281679999999997e-03 -9.257436854000000021e-03 -3.126762439999999921e-02
-5.689247106000000151e-03 -8.084924332000000685e-03 -1.986795636000000028e-03 2.501247815000000058e-03 -6.344402860000000538e-04 4.165966063999999858e-03 3.187999291000000093e-03 8.719364618000000414e-03 -2.179170427999999830e-03
-8.981281823000000428e-03 -1.113734029099999918e-02 -3.091021600999999987e-03 6.933849116000000146e-03 -1.122907605100000039e-02 -2.384757240299999886e-02 2.047432707999999844e-03 2.236641634200000131e-02 2.693859400400000145e-02
1.145481200999999907e-03 -3.012995379999999866e-03 -1.453268525000000035e-03 6.545201964000000108e-03 -1.046915855399999963e-02 -2.198496834699999875e-02 -7.690683165999999578e-03 1.348215393400000080e-02 2.343823687299999986e-02
1.438229303200000073e-02 7.760499722000000281e-03 1.119998419999999927e-03 2.619383783000000208e-03 -2.134040376000000041e-03 -6.098113699999999646e-04 -1.700167681499999833e-02 -5.626459345999999806e-03 -5.101870499999999623e-04
1.465082103199999951e-02 8.661035851000000590e-03 2.390245989999999991e-03 -2.057648493999999790e-03 5.869435725999999805e-03 2.078813795200000134e-02 -1.259317253800000015e-02 -1.453047157699999953e-02 -2.317838394300000132e-02
1.702550491999999926e-03 -6.276814700000000156e-04 1.602175796000000025e-03 -3.937891617000000358e-03 7.010592742000000023e-03 2.550789466799999877e-02 2.235341124999999998e-03 -6.382911271999999574e-03 -2.711007046400000162e-02
-1.364431168699999954e-02 -1.212180142699999935e-02 -5.111194000000000110e-04 -7.396698510000000509e-04 -1.805523969000000098e-03 5.657944970000000282e-03 1.438398153799999926e-02 1.392732539599999923e-02 -5.146825570000000162e-03
-1.684307953199999999e-02 -1.459747397599999927e-02 -1.039450417999999987e-03 3.273836659999999985e-03 -1.155289402099999967e-02 -1.665953190799999983e-02 1.356924287200000044e-02 2.615036799700000067e-02 1.769898232599999982e-02
3.045738783999999994e-03 -3.652421229999999936e-04 4.214866500000000009e-04 1.741854782000000056e-03 -1.379979798999999988e-03 1.946237385999999943e-03 -4.787593566000000050e-03 1.745221920999999931e-03 -2.367724035000000164e-03
7.420433284999999879e-03 4.075847078000000186e-03 1.519691187000000001e-03 5.437254869999999865e-03 -1.028416894799999946e-02 -6.516830216999999932e-03 -1.285768815600000017e-02 6.208321870000000145e-03 4.997139030999999711e-03
6.822711484000000201e-03 4.672911759999999644e-03 2.234133208000000162e-03 4.654702630000000230e-03 -1.120964828900000015e-02 -6.852840685000000098e-03 -1.147741411400000043e-02 6.536736528999999643e-03 4.618707476000000374e-03
1.940036019999999937e-03 1.986806418999999876e-03 2.554505135000000211e-03 -1.381472560000000110e-04 -4.922910160999999750e-03 -4.781348400000000180e-05 -1.801888763999999954e-03 2.936103741999999874e-03 -2.506691651000000128e-03
-3.796312783999999940e-03 -1.609450463000000001e-03 2.556163053999999969e-03 -5.356249500999999726e-03 2.746306304000000094e-03 7.864756909000000795e-03 9.152562285999999228e-03 -1.136855842000000089e-03 -1.042091996299999990e-02
-6.451615830999999669e-03 -3.443814856999999948e-03 2.413299395999999979e-03 -7.125949856999999957e-03 5.400770146000000334e-03 1.056937950600000085e-02 1.357756568800000049e-02 -1.956955288999999952e-03 -1.298267890199999997e-02
-3.871635213000000023e-03 -1.883154411000000040e-03 2.446335856000000052e-03 -3.789408849999999825e-03 -2.428828469999999866e-04 5.180934158000000123e-03 7.661044062999999849e-03 2.126037258000000162e-03 -7.627270014000000174e-03
2.639930302000000062e-03 2.285740652000000078e-03 2.749775446999999824e-03 1.766998135999999983e-03 -9.172497090999999145e-03 -3.365789490999999880e-03 -4.406928438000000045e-03 6.886756437999999939e-03 6.160140439999999473e-04
8.294082506000000077e-03 5.550046052000000112e-03 2.817961519999999994e-03 4.686332510000000215e-03 -1.225754282699999947e-02 -6.694111301000000083e-03 -1.298041501600000029e-02 6.707496773999999801e-03 3.876149781000000089e-03
8.338953955999999293e-03 4.504837608999999986e-03 2.052524799999999854e-03 3.331055930000000054e-03 -7.001790800999999759e-03 -2.594484159999999994e-03 -1.167000988599999935e-02 2.496953193000000203e-03 5.419593590000000355e-04
2.501429586000000153e-03 -8.260813019999999800e-04 4.659074879999999981e-04 -2.905721090000000072e-04 2.023149472999999973e-03 4.869524771000000030e-03 -2.210857477999999925e-03 -1.197068171000000101e-03 -5.335432258999999594e-03
3.045738783999999994e-03 -3.652421229999999936e-04 4.214866500000000009e-04 1.741854782000000056e-03 -1.379979798999999988e-03 1.946237385999999943e-03 -4.787593566000000050e-03 1.745221920999999931e-03 -2.367724035000000164e-03
7.580124031999999588e-03 -1.439625511000000059e-03 -5.768831969000000337e-03 3.297333216999999948e-03 2.793832540499999878e-02 4.117748980899999661e-02 -1.087745724899999954e-02 -2.649869989300000089e-02 -3.540865784000000321e-02
2.507798410000000198e-04 -1.218435459399999990e-02 -1.333391223799999976e-02 6.346765217999999868e-03 4.525772085600000133e-02 6.200051513100000161e-02 -6.597545058999999996e-03 -3.307336626199999796e-02 -4.866660289299999664e-02
-1.520097140000000076e-02 -2.935785419000000104e-02 -2.178717721999999871e-02 1.734098415199999965e-02 2.722111415299999920e-02 2.768060235200000066e-02 -2.140012753000000191e-03 2.136740037000000106e-03 -5.893425132000000219e-03
-2.130655308400000031e-02 -3.698099461900000023e-02 -2.622300972900000124e-02 2.969908017400000114e-02 -3.825621458999999870e-03 -2.487645683500000135e-02 -8.392527089000000398e-03 4.080661607799999924e-02 5.109946656400000259e-02
3.205740499999999737e-04 -2.083201830500000171e-02 -2.410915472999999865e-02 2.953442068200000034e-02 -7.649482681000000298e-03 -2.998072037499999870e-02 -2.985499473200000156e-02 2.848150098600000027e-02 5.408987510499999735e-02
2.638191377300000071e-02 8.001793959999999734e-04 -1.860365750999999970e-02 1.795065540000000126e-02 5.616562977000000290e-03 -3.163090698000000159e-03 -4.433256917299999850e-02 -6.416742373000000263e-03 2.176674820800000160e-02
2.495646307899999916e-02 6.161737254000000316e-03 -1.069750614299999972e-02 9.875647179999999699e-04 1.893675312099999883e-02 2.782741639300000125e-02 -2.594402779699999870e-02 -2.509849037500000088e-02 -1.712991025000000153e-02
3.756893146000000148e-03 6.465873300000000176e-05 -1.193856177000000027e-03 -1.461045862700000031e-02 2.385630940000000103e-02 4.672060457700000224e-02 1.085356548000000060e-02 -2.392096813300000069e-02 -4.552674839999999723e-02
-1.978247954900000036e-02 -8.239754222000000156e-03 7.152144457999999941e-03 -1.650553040100000146e-02 5.923455559000000148e-03 2.613742570099999996e-02 3.628800994899999965e-02 2.316298663000000008e-03 -3.328957015899999816e-02
-2.826970270799999962e-02 -8.152555812999999485e-03 1.385870675399999974e-02 -7.176596773999999873e-03 -3.034350759199999983e-02 -2.555697552599999964e-02 3.544629948200000297e-02 3.849606340600000148e-02 1.169826877199999990e-02
3.045738783999999994e-03 -3.652421229999999936e-04 4.214866500000000009e-04 1.741854782000000056e-03 -1.379979798999999988e-03 1.946237385999999943e-03 -4.787593566000000050e-03 1.745221920999999931e-03 -2.367724035000000164e-03
7.155601917999999950e-03 -2.801600859999999827e-04 -4.104596173000000028e-03 5.399942282000000197e-03 8.365452517999999449e-03 1.276624263999999974e-02 -1.255554419999999928e-02 -8.085292431000000446e-03 -8.661646465999999281e-03
3.528738086000000104e-03 -6.043977822999999604e-03 -8.839034298999999192e-03 9.246170520999999823e-03 1.179568380100000022e-02 1.379510591099999961e-02 -1.277490860700000036e-02 -5.751705977999999747e-03 -4.956071612000000418e-03
-4.606813750999999568e-03 -1.447974693499999924e-02 -1.275877550200000057e-02 1.308662180900000034e-02 8.584927588000000262e-03 5.029829050999999780e-03 -8.479808058000000773e-03 5.894819346999999841e-03 7.728946450999999926e-03
-9.140846168000000410e-03 -1.875943921499999972e-02 -1.434913268399999955e-02 1.513787617799999992e-02 5.012144326999999622e-03 -2.296231956999999786e-03 -5.997030010000000376e-03 1.374729488800000010e-02 1.664536464099999891e-02
-4.535660767999999919e-03 -1.474804576600000083e-02 -1.309390827099999981e-02 1.371179896599999948e-02 5.686550430999999864e-03 2.962841099999999919e-05 -9.176138198000000426e-03 9.061495334999999235e-03 1.306427985999999986e-02
4.849380228000000313e-03 -5.988011625000000220e-03 -9.675953572000000474e-03 9.225678418000000242e-03 8.428458498000000396e-03 8.178594194999999623e-03 -1.407505864499999926e-02 -2.440446873000000176e-03 1.497359375999999988e-03
8.720548734999999940e-03 1.882783399999999921e-05 -4.916037653999999826e-03 3.695272066000000050e-03 8.332115450000000118e-03 1.321169738399999988e-02 -1.241582080200000042e-02 -8.350943284000000161e-03 -8.295659730000000051e-03
3.781721709999999806e-03 6.602574680000000045e-04 4.165102750000000209e-04 -5.098626480000000450e-04 2.159225130000000208e-03 8.573485291000000619e-03 -3.271859060999999982e-03 -2.819482598000000104e-03 -8.989995566999999660e-03
-4.213380372999999887e-03 -7.382610719999999679e-04 5.556858736999999680e-03 -2.931729585999999933e-03 -8.203238394999999572e-03 -3.345676940999999828e-03 7.145109959999999816e-03 8.941499466999999757e-03 -2.211181794999999856e-03
-6.841830573000000013e-03 8.983955860000000099e-04 1.005959474500000075e-02 -5.473073414000000254e-03 -1.598760863000000046e-02 -1.163014974100000029e-02 1.231490398799999983e-02 1.508921304400000045e-02 1.570554995999999971e-03
3.045738783999999994e-03 -3.652421229999999936e-04 4.214866500000000009e-04 1.741854782000000056e-03 -1.379979798999999988e-03 1.946237385999999943e-03 -4.787593566000000050e-03 1.745221920999999931e-03 -2.367724035000000164e-03
3.584248134999999842e-03 1.024741385300000085e-02 2.205448226399999920e-02 7.315145879600000456e-02 -5.610003633200000284e-02 -2.348563805749999955e-01 -7.673570693100000006e-02 4.585262247800000329e-02 2.128018983109999929e-01
-9.694325579999999581e-03 8.976774308000000369e-03 4.080811894499999926e-02 4.904488551600000301e-02 -5.688114964499999676e-02 -1.974638714330000100e-01 -3.935055993599999996e-02 4.790437533700000333e-02 1.566557524889999886e-01
-3.007711928100000043e-02 1.602544402999999925e-03 5.787067978999999723e-02 3.193639895500000048e-02 -5.372860989599999998e-02 -1.633830392829999922e-01 -1.859279675000000045e-03 5.212606549300000114e-02 1.055123594930000019e-01
-4.192602573899999879e-02 -1.686981777000000089e-03 6.978532519800000056e-02 2.091024429000000115e-02 -5.025019532499999664e-02 -1.385257989479999896e-01 2.101578144900000111e-02 5.193717710199999976e-02 6.874047375000000293e-02
1.491273249999999946e-02 3.342995371000000160e-02 5.617145159800000093e-02 8.552194048000000617e-03 -4.302073749399999703e-02 -1.039027544429999977e-01 -2.346492654800000008e-02 9.590783784000000631e-03 4.773130284399999812e-02
3.045738783999999994e-03 -3.652421229999999936e-04 4.214866500000000009e-04 1.741854782000000056e-03 -1.379979798999999988e-03 1.946237385999999943e-03 -4.787593566000000050e-03 1.745221920999999931e-03 -2.367724035000000164e-03
2.178371115000000101e-03 -1.054432968999999927e-03 4.024088429999999792e-04 1.722834835000000044e-03 -1.566750308000000071e-03 1.765660292999999973e-03 -3.901205950000000144e-03 2.621183278000000210e-03 -2.168069135999999789e-03
3.861972639999999911e-04 -2.426507506000000203e-03 3.638989940000000173e-04 1.623992572999999979e-03 -1.876318942000000005e-03 1.498842804000000053e-03 -2.010189837000000024e-03 4.302826447000000429e-03 -1.862741798000000070e-03
-6.291206919999999935e-04 -3.100591434000000198e-03 4.822669879999999759e-04 1.368862320000000009e-03 -1.977929030000000112e-03 1.643721222000000095e-03 -7.397416280000000156e-04 5.078520464000000310e-03 -2.125988210000000125e-03
9.950550600000000105e-05 -2.346236682000000118e-03 8.429126270000000115e-04 1.015053780000000055e-03 -1.847546744000000104e-03 2.166146193999999962e-03 -1.114559285999999934e-03 4.193783425999999571e-03 -3.009058820999999974e-03
1.836493587000000063e-03 -8.077003189999999808e-04 1.319804215999999947e-03 7.599216480000000034e-04 -1.856800151000000077e-03 2.416320889999999926e-03 -2.596415234999999849e-03 2.664500470000000058e-03 -3.736125104999999877e-03
2.857773118000000046e-03 1.268863999999999919e-04 1.656804947999999901e-03 7.526326929999999820e-04 -2.343130375999999924e-03 1.858125821999999936e-03 -3.610405810999999920e-03 2.216243976000000122e-03 -3.514930769999999836e-03
2.247429561999999929e-03 -2.477572080000000156e-04 1.706952931000000045e-03 8.994727760000000537e-04 -3.098132428999999990e-03 8.442635800000000039e-04 -3.146902338999999979e-03 3.345889636999999951e-03 -2.551216510999999940e-03
7.148491870000000517e-04 -1.363714449999999965e-03 1.560476365999999932e-03 9.204392360000000339e-04 -3.450039690000000075e-03 4.160130270000000170e-04 -1.635288422999999977e-03 4.813754140000000258e-03 -1.976489391999999845e-03
-2.583937540000000137e-04 -2.096193823999999845e-03 1.426751486999999980e-03 6.649878880000000513e-04 -2.967334050000000091e-03 1.183539567000000065e-03 -4.065941329999999874e-04 5.063527873000000373e-03 -2.610291054000000045e-03
1.510481329999999916e-04 -1.858493937000000066e-03 1.420479856999999927e-03 3.249915609999999870e-04 -1.991460281000000197e-03 2.572859686000000118e-03 -4.760396939999999785e-04 3.849954217000000050e-03 -3.993339541999999832e-03
6.279318191999999979e-03 4.284610553999999849e-03 5.881751133000000069e-03 5.911079871999999624e-03 -3.293625483800000087e-02 -9.957936426800000074e-02 -1.219039806500000003e-02 2.865164428400000102e-02 9.369761313499999633e-02
1.266624226699999967e-02 1.128144035399999967e-02 1.199425438499999996e-02 -7.792552919999999909e-04 -2.992079942499999839e-02 -7.644570696899999351e-02 -1.188698697499999957e-02 1.863935907000000003e-02 6.445145258399999355e-02
1.355618232699999995e-02 1.393119080100000025e-02 1.758461039100000026e-02 -8.831244323000000257e-03 -1.854660002499999849e-02 -2.704903244600000145e-02 -4.724938003999999692e-03 4.615409223999999977e-03 9.464422055999999889e-03
7.476156969999999888e-03 1.098343652099999929e-02 2.201574300000000081e-02 -1.566564124200000088e-02 -4.911475531999999825e-03 2.523493854699999928e-02 8.189484272999999689e-03 -6.071960989999999891e-03 -4.725068154800000225e-02
-1.830205644999999921e-03 4.546162607000000036e-03 2.316647428900000041e-02 -1.951556547700000060e-02 9.431170142999999867e-03 7.246293854900000275e-02 2.134577112299999857e-02 -1.397733274999999990e-02 -9.562941283699999406e-02
-1.247630552200000055e-02 -4.888381029999999683e-03 1.852003450000000093e-02 -1.789763572999999997e-02 1.323524317399999914e-02 8.000441665499999355e-02 3.037394125199999878e-02 -8.346862143999999456e-03 -9.852445115600000358e-02
1.120615567300000011e-02 5.872144422000000197e-03 6.552146687000000302e-03 -1.088971891800000029e-02 -4.793420800200000331e-02 -9.411669685399999541e-02 -3.164367549999999823e-04 4.206206358000000312e-02 8.756455016700000205e-02
5.838473948700000082e-02 3.818309978300000324e-02 8.057178817000000548e-03 -1.283207449999999904e-03 -2.703402119099999890e-02 -5.913461319100000307e-02 -5.710153203699999680e-02 -1.114907859199999914e-02 5.107743437400000253e-02
5.741266257500000220e-02 3.497220775200000215e-02 1.600150739999999915e-03 4.758136645000000074e-03 -2.539325751999999860e-03 -1.019503381900000068e-02 -6.217079922000000314e-02 -3.243288199899999752e-02 8.594883079000000328e-03
4.785613523000000272e-03 4.267022639999999700e-03 4.344157730000000085e-03 2.230325238299999888e-02 -5.628645725399999966e-02 -8.520807715299999474e-02 -2.708886590600000088e-02 5.201943461399999996e-02 8.086391942300000246e-02
1.067632201499999975e-02 1.234507117499999973e-02 9.170735920000000832e-03 1.211226615900000067e-02 -4.679997615200000294e-02 -6.450495261699999705e-02 -2.278858817400000042e-02 3.445490497700000321e-02 5.533421669699999795e-02
1.142275914000000052e-02 1.655007098699999915e-02 1.371374186699999935e-02 -3.764687585999999895e-03 -2.312454168900000134e-02 -2.156557139200000056e-02 -7.658071554000000190e-03 6.574470701999999590e-03 7.851829525999999906e-03
4.683447753999999894e-03 1.490667891199999942e-02 1.743765790500000079e-02 -1.910559101799999895e-02 3.173055406999999821e-03 2.364575125100000161e-02 1.442214326300000037e-02 -1.807973431900000011e-02 -4.108340915599999893e-02
-5.391657178000000376e-03 8.894636493999999796e-03 1.853967024599999930e-02 -3.084767943000000026e-02 2.862046194999999862e-02 6.434855897300000016e-02 3.623933660700000281e-02 -3.751509844400000016e-02 -8.288822921900000640e-02
-1.593154743100000034e-02 -1.262127313000000091e-03 1.484905666500000061e-02 -3.067520065499999837e-02 3.359195236499999682e-02 7.044376667599999697e-02 4.660674808600000218e-02 -3.232982505200000106e-02 -8.529282334099999585e-02
1.104884331899999919e-02 7.367252961000000412e-03 6.269926680999999766e-03 4.907013188000000116e-03 -7.056189784499999895e-02 -8.114686934299999987e-02 -1.595585650699999844e-02 6.319464488499999810e-02 7.487694266199999837e-02
5.854177458999999806e-02 3.849724543500000068e-02 8.612870441000000307e-03 8.088709652000000347e-03 -4.185845769399999805e-02 -5.065077288300000313e-02 -6.663048424199999320e-02 3.361212258999999973e-03 4.203790244200000109e-02
5.737032938899999657e-02 3.360177327600000208e-02 3.671693493999999940e-03 5.326029331999999894e-03 -6.274527793999999659e-03 -8.530697469000000574e-03 -6.269635872100000340e-02 -2.732724548199999895e-02 4.859003974999999767e-03
3.045738783999999994e-03 -3.652421229999999936e-04 4.214866500000000009e-04 1.741854782000000056e-03 -1.379979798999999988e-03 1.946237385999999943e-03 -4.787593566000000050e-03 1.745221920999999931e-03 -2.367724035000000164e-03
3.235061994999999940e-03 9.663712649999999654e-04 4.391177714000000197e-03 2.257647677000000110e-03 -1.846748072600000110e-02 -5.653016083700000000e-02 -5.492709672000000050e-03 1.750110946099999940e-02 5.213898312299999893e-02
7.020409537000000047e-03 5.288499371999999706e-03 8.850134348999999859e-03 -1.552447081000000095e-03 -1.931428318100000124e-02 -5.010816230199999916e-02 -5.467962455999999735e-03 1.402578380900000067e-02 4.125802795399999973e-02
1.032119148500000062e-02 9.094852876000000461e-03 1.277724553400000004e-02 -6.853801009999999604e-03 -1.163905462900000076e-02 -1.336496862599999974e-02 -3.467390475000000152e-03 2.544201752999999868e-03 5.877230930000000185e-04
8.078236916999999295e-03 8.219306182999999710e-03 1.518589752600000078e-02 -1.124957427600000066e-02 -1.884195730000000086e-03 2.690926496100000051e-02 3.171337359000000067e-03 -6.335110453000000058e-03 -4.209516248799999999e-02
-1.293339929999999928e-04 1.930938475999999931e-03 1.458374445799999995e-02 -1.280745631600000052e-02 4.836373490000000358e-03 5.086434815399999698e-02 1.293679030999999972e-02 -6.767311966000000290e-03 -6.544809261200000561e-02
-1.066080230200000013e-02 -7.392541130000000217e-03 9.823309364000000835e-03 -1.015102550800000072e-02 -2.624565910999999974e-03 2.366734784699999969e-02 2.081182780999999912e-02 1.001710704099999932e-02 -3.349065721100000226e-02
-1.164501855900000084e-02 -1.004903925000000080e-02 4.354379961999999861e-03 -5.488257721000000013e-03 -1.821308108999999953e-02 -3.067317255199999981e-02 1.713327628000000172e-02 2.826212033999999859e-02 2.631879259000000082e-02
9.831224063000000568e-03 4.366684029999999897e-03 2.808245495000000203e-03 -5.390531569999999729e-04 -1.951576133999999990e-02 -4.438415554800000107e-02 -9.292170905999999619e-03 1.514907730899999957e-02 4.157591005300000087e-02
3.165388670600000065e-02 1.895285310700000128e-02 1.577641783999999972e-03 4.020588585999999680e-03 -6.787233250000000023e-03 -1.869892454900000042e-02 -3.567447529199999773e-02 -1.216561985799999995e-02 1.712128276499999893e-02
2.629632712300000036e-02 1.369465378600000054e-02 -3.023560029000000107e-03 6.339235407000000030e-03 7.495241383000000347e-03 1.472343026799999982e-02 -3.263556253000000212e-02 -2.118989516899999828e-02 -1.169987023899999971e-02
3.045738783999999994e-03 -3.652421229999999936e-04 4.214866500000000009e-04 1.741854782000000056e-03 -1.379979798999999988e-03 1.946237385999999943e-03 -4.787593566000000050e-03 1.745221920999999931e-03 -2.367724035000000164e-03
2.009035783000000068e-03 -5.613048540000000483e-04 9.505140870000000457e-04 -7.878275307000000630e-03 1.300807158000000067e-02 2.281252309699999953e-02 5.869239523999999694e-03 -1.244676672599999943e-02 -2.376303718400000001e-02
-2.066771678000000126e-03 -3.835394955999999866e-03 5.859831899999999897e-04 -1.057578128299999955e-02 1.655694837099999997e-02 2.820010027899999897e-02 1.264255295999999924e-02 -1.272155341499999967e-02 -2.878608346899999906e-02
-6.381429053000000316e-03 -7.978410958000000525e-03 -5.040609189999999823e-04 -1.203046413000000018e-03 1.101165965999999913e-03 7.347249723999999850e-03 7.584475464999999687e-03 6.877244993000000174e-03 -6.843188804999999868e-03
-4.016679355000000312e-03 -6.273067222000000207e-03 -3.600037300000000261e-04 1.018956006299999960e-02 -1.753591197699999951e-02 -1.763430275300000016e-02 -6.172880708000000154e-03 2.380897919900000145e-02 1.799430648299999921e-02
7.046613771000000137e-03 3.318777502999999910e-03 1.882696669000000038e-03 1.095352031899999960e-02 -1.865918690100000152e-02 -1.925987308200000081e-02 -1.800013409000000147e-02 1.534040939800000031e-02 1.737717641200000121e-02
1.526242999299999917e-02 1.075622787099999970e-02 3.919230739000000192e-03 3.216058270000000160e-03 -6.367533386999999628e-03 -3.319868979000000116e-03 -1.847848826400000019e-02 -4.388694482999999646e-03 -5.993617599999999683e-04
1.057391838800000004e-02 7.697254932000000341e-03 3.760716942000000024e-03 -6.214548983999999832e-03 7.436761935000000233e-03 1.477502987600000026e-02 -4.359369404000000212e-03 -1.513401686699999971e-02 -1.853574681799999985e-02
-3.202043548999999878e-03 -3.206413686999999828e-03 1.407907037999999974e-03 -1.054400118800000001e-02 1.307094320599999984e-02 2.237844994799999959e-02 1.374604473699999989e-02 -9.864529518999999580e-03 -2.378635698599999848e-02
-1.589314147299999980e-02 -1.415856018900000027e-02 -1.734704895999999996e-03 -4.802056935999999589e-03 3.672301263000000027e-03 1.095894071000000011e-02 2.069519840899999852e-02 1.048625892600000067e-02 -9.224235814000000117e-03
-1.483422831700000055e-02 -1.412893093599999934e-02 -2.172338990000000167e-03 4.850867709000000229e-03 -1.140787863100000028e-02 -7.436694124000000142e-03 9.983360607999999456e-03 2.553680956699999963e-02 9.609033113999999876e-03
3.045738783999999994e-03 -3.652421229999999936e-04 4.214866500000000009e-04 1.741854782000000056e-03 -1.379979798999999988e-03 1.946237385999999943e-03 -4.787593566000000050e-03 1.745221920999999931e-03 -2.367724035000000164e-03
6.358668264000000292e-03 -1.011434800000000035e-05 -2.181991982999999854e-03 1.010638229900000067e-02 -3.657939586100000112e-02 -5.038071964100000050e-02 -1.646505056299999922e-02 3.658951020899999657e-02 5.256271162400000252e-02
1.345287499099999916e-02 4.143730186999999669e-03 -3.423523891999999836e-03 9.990231821999999776e-03 -2.900507693199999917e-02 -4.103985360299999829e-02 -2.344310681400000110e-02 2.486134674499999864e-02 4.446337749399999900e-02
1.439399508300000068e-02 4.978373856999999958e-03 -3.258656580999999813e-03 4.646180488999999969e-03 -4.868768195000000402e-03 -6.824779720999999723e-03 -1.904017557300000107e-02 -1.096056620000000027e-04 1.008343630200000084e-02
4.471840599999999701e-03 -8.777992050000000103e-04 -1.843671306999999926e-03 -2.560847921999999995e-03 2.027638853699999938e-02 2.989070368100000055e-02 -1.910992677999999922e-03 -1.939858933200000121e-02 -2.804703237299999846e-02
-1.059686156199999944e-02 -1.046482032699999967e-02 -6.808440949999999478e-04 -7.785326654999999950e-03 3.661378706800000327e-02 5.399886557499999906e-02 1.838218821599999983e-02 -2.614896674100000012e-02 -5.331802147999999825e-02
-2.213932011700000049e-02 -1.874662282599999855e-02 -1.027144771999999968e-03 -4.345123505999999927e-03 2.140237363299999848e-02 3.333832617400000337e-02 2.648444362299999869e-02 -2.655750806999999936e-03 -3.231118140199999711e-02
-1.572541918699999972e-02 -1.479984122599999931e-02 -1.371704361999999920e-03 4.803495670999999995e-03 -1.831105357400000105e-02 -2.049330887099999957e-02 1.092192351599999972e-02 3.311089479999999863e-02 2.186501323300000035e-02
1.643378573899999945e-02 6.918865060999999927e-03 -8.374939240000000206e-04 8.407834093999999939e-03 -3.432518347400000114e-02 -4.200511834299999747e-02 -2.484161983300000112e-02 2.740631841300000121e-02 4.284261226600000194e-02
3.970130614399999813e-02 2.292914448200000094e-02 -1.275889299999999995e-05 4.512074304999999681e-03 -1.948938015600000170e-02 -2.225678563000000124e-02 -4.421338044800000172e-02 -3.439764326000000101e-03 2.226954452299999970e-02
2.825786264499999950e-02 1.725744453799999897e-02 1.796978407999999961e-03 -3.186391504999999940e-03 2.195737729999999808e-03 7.830136136999999580e-03 -2.507147113999999913e-02 -1.945318226800000008e-02 -9.627114545000000842e-03
